# vtk DataFile Version 2.0
Simplicial Mesh Example
ASCII
DATASET UNSTRUCTURED_GRID
POINTS 4 double
-5.000000e-01 -5.000000e-01 0.0
5.000000e-01 -5.000000e-01 0.0
-5.000000e-01 5.000000e-01 0.0
5.000000e-01 5.000000e-01 0.0
CELLS 2 8
3  0 1 2
3  1 3 2
CELL_TYPES 2
5
5
CELL_DATA 2
SCALARS mu double 1
LOOKUP_TABLE default
3.000000e+10
3.000000e+10
SCALARS lambda double 1
LOOKUP_TABLE default
2.875724e+10
2.875724e+10
SCALARS density double 1
LOOKUP_TABLE default
2.700000e+03
2.700000e+03
