# vtk DataFile Version 2.0
Simplicial Mesh Example
ASCII
DATASET UNSTRUCTURED_GRID
POINTS 4 double
-5.000000e-01 -5.000000e-01 0.0
5.000000e-01 -5.000000e-01 0.0
-5.000000e-01 5.000000e-01 0.0
5.000000e-01 5.000000e-01 0.0
CELLS 2 8
3  0 1 2
3  1 3 2
CELL_TYPES 2
5
5
POINT_DATA 4
VECTORS displacement double
-1.000000e-02 -1.000000e-02 0.0
-3.239988e-03 3.239988e-03 0.0
3.239988e-03 -3.239988e-03 0.0
1.000000e-02 1.000000e-02 0.0
